 vasp.5.4.4.18Apr17-6-g9f103f2a35 (build Jul 15 2022 10:41:44) complex           
 executed on             LinuxGNU date 2022.07.19  15:15:07
 running on    1 total cores
 distrk:  each k-point on    1 cores,    1 groups
 distr:  one band on NCORES_PER_BAND=   1 cores,    1 groups


--------------------------------------------------------------------------------------------------------


 INCAR:
 POTCAR:    PAW_PBE Ba_sv 06Sep2000               
 POTCAR:    PAW_PBE Ti_sv 26Sep2005               
 POTCAR:    PAW_PBE O 08Apr2002                   
 POTCAR:    PAW_PBE Ba_sv 06Sep2000               
   VRHFIN =Ba: 5s5p6s                                                           
   LEXCH  = PE                                                                  
   EATOM  =   700.8560 eV,   51.5115 Ry                                         
                                                                                
   TITEL  = PAW_PBE Ba_sv 06Sep2000                                             
   LULTRA =        F    use ultrasoft PP ?                                      
   IUNSCR =        1    unscreen: 0-lin 1-nonlin 2-no                           
   RPACOR =    2.400    partial core radius                                     
   POMASS =  137.327; ZVAL   =   10.000    mass and valenz                      
   RCORE  =    2.800    outmost cutoff radius                                   
   RWIGS  =    3.740; RWIGS  =    1.979    wigner-seitz radius (au A)           
   ENMAX  =  187.181; ENMIN  =  140.386 eV                                      
   RCLOC  =    2.516    cutoff for local pot                                    
   LCOR   =        T    correct aug charges                                     
   LPAW   =        T    paw PP                                                  
   EAUG   =  351.165                                                            
   DEXC   =    0.000                                                            
   RMAX   =    2.865    core radius for proj-oper                               
   RAUG   =    1.300    factor for augmentation sphere                          
   RDEP   =    2.976    radius for radial grids                                 
   RDEPT  =    2.289    core radius for aug-charge                              
                                                                                
   Atomic configuration                                                         
   13 entries                                                                   
     n  l   j            E        occ.                                          
     1  0  0.50    -37249.5946   2.0000                                         
     2  0  0.50     -5887.1925   2.0000                                         
     2  1  1.50     -5278.3977   6.0000                                         
     3  0  0.50     -1242.7293   2.0000                                         
     3  1  1.50     -1047.6609   6.0000                                         
     3  2  2.50      -764.6158  10.0000                                         
     4  0  0.50      -243.8228   2.0000                                         
     4  1  1.50      -180.9218   6.0000                                         
     4  2  2.50       -89.6477  10.0000                                         
     5  0  0.50       -33.6549   2.0000                                         
     6  0  0.50        -3.2247   1.9900                                         
     5  1  1.50       -18.7193   6.0000                                         
     5  2  2.50        -2.0115   0.0100                                         
   Description                                                                  
     l       E           TYP  RCUT    TYP  RCUT                                 
     0    -33.6549039     23  2.800                                             
     0     -3.2246942     23  2.800                                             
     1    -18.7193050     23  2.700                                             
     1     27.2116520     23  2.700                                             
     2     -2.0115002     23  2.700                                             
     2      0.3057420     23  2.700                                             
  local pseudopotential read in
  partial core-charges read in
  partial kinetic energy density read in
  atomic valenz-charges read in
  non local Contribution for L=           0  read in
    real space projection operators read in
  non local Contribution for L=           0  read in
    real space projection operators read in
  non local Contribution for L=           1  read in
    real space projection operators read in
  non local Contribution for L=           1  read in
    real space projection operators read in
  non local Contribution for L=           2  read in
    real space projection operators read in
  non local Contribution for L=           2  read in
    real space projection operators read in
    PAW grid and wavefunctions read in

   number of l-projection  operators is LMAX  =           6
   number of lm-projection operators is LMMAX =          18

 POTCAR:    PAW_PBE Ti_sv 26Sep2005               
   VRHFIN =Ti: 3p4s3d                                                           
   LEXCH  = PE                                                                  
   EATOM  =  1588.0892 eV,  116.7213 Ry                                         
                                                                                
   TITEL  = PAW_PBE Ti_sv 26Sep2005                                             
   LULTRA =        F    use ultrasoft PP ?                                      
   IUNSCR =        1    unscreen: 0-lin 1-nonlin 2-no                           
   RPACOR =    2.000    partial core radius                                     
   POMASS =   47.880; ZVAL   =   12.000    mass and valenz                      
   RCORE  =    2.300    outmost cutoff radius                                   
   RWIGS  =    2.300; RWIGS  =    1.217    wigner-seitz radius (au A)           
   ENMAX  =  274.610; ENMIN  =  205.957 eV                                      
   ICORE  =        3    local potential                                         
   LCOR   =        T    correct aug charges                                     
   LPAW   =        T    paw PP                                                  
   EAUG   =  482.848                                                            
   RMAX   =    2.348    core radius for proj-oper                               
   RAUG   =    1.300    factor for augmentation sphere                          
   RDEP   =    2.381    radius for radial grids                                 
   RDEPT  =    1.930    core radius for aug-charge                              
                                                                                
   Atomic configuration                                                         
    8 entries                                                                   
     n  l   j            E        occ.                                          
     1  0  0.50     -4865.3608   2.0000                                         
     2  0  0.50      -533.1368   2.0000                                         
     2  1  1.50      -440.5031   6.0000                                         
     3  0  0.50       -59.3186   2.0000                                         
     4  0  0.50        -3.7291   1.0000                                         
     3  1  1.50       -35.7012   6.0000                                         
     3  2  2.50        -1.9157   3.0000                                         
     4  3  2.50        -1.3606   0.0000                                         
   Description                                                                  
     l       E           TYP  RCUT    TYP  RCUT                                 
     0    -59.3185931     23  1.800                                             
     0     -3.7290822     23  2.300                                             
     1    -35.7012045     23  2.300                                             
     1     -1.3605826     23  2.300                                             
     2     -1.9156920     23  2.300                                             
     2     -0.0236318     23  2.300                                             
     3     -1.3605826     23  2.300                                             
  local pseudopotential read in
  partial core-charges read in
  partial kinetic energy density read in
  atomic valenz-charges read in
  non local Contribution for L=           0  read in
    real space projection operators read in
  non local Contribution for L=           0  read in
    real space projection operators read in
  non local Contribution for L=           1  read in
    real space projection operators read in
  non local Contribution for L=           1  read in
    real space projection operators read in
  non local Contribution for L=           2  read in
    real space projection operators read in
  non local Contribution for L=           2  read in
    real space projection operators read in
    PAW grid and wavefunctions read in

   number of l-projection  operators is LMAX  =           6
   number of lm-projection operators is LMMAX =          18

 POTCAR:    PAW_PBE O 08Apr2002                   
   VRHFIN =O: s2p4                                                              
   LEXCH  = PE                                                                  
   EATOM  =   432.3788 eV,   31.7789 Ry                                         
                                                                                
   TITEL  = PAW_PBE O 08Apr2002                                                 
   LULTRA =        F    use ultrasoft PP ?                                      
   IUNSCR =        1    unscreen: 0-lin 1-nonlin 2-no                           
   RPACOR =    1.200    partial core radius                                     
   POMASS =   16.000; ZVAL   =    6.000    mass and valenz                      
   RCORE  =    1.520    outmost cutoff radius                                   
   RWIGS  =    1.550; RWIGS  =    0.820    wigner-seitz radius (au A)           
   ENMAX  =  400.000; ENMIN  =  300.000 eV                                      
   ICORE  =        2    local potential                                         
   LCOR   =        T    correct aug charges                                     
   LPAW   =        T    paw PP                                                  
   EAUG   =  605.392                                                            
   DEXC   =    0.000                                                            
   RMAX   =    1.553    core radius for proj-oper                               
   RAUG   =    1.300    factor for augmentation sphere                          
   RDEP   =    1.550    radius for radial grids                                 
   RDEPT  =    1.329    core radius for aug-charge                              
                                                                                
   Atomic configuration                                                         
    4 entries                                                                   
     n  l   j            E        occ.                                          
     1  0  0.50      -514.6923   2.0000                                         
     2  0  0.50       -23.9615   2.0000                                         
     2  1  0.50        -9.0305   4.0000                                         
     3  2  1.50        -9.5241   0.0000                                         
   Description                                                                  
     l       E           TYP  RCUT    TYP  RCUT                                 
     0    -23.9615318     23  1.200                                             
     0     -9.5240782     23  1.200                                             
     1     -9.0304911     23  1.520                                             
     1      8.1634956     23  1.520                                             
     2     -9.5240782      7  1.500                                             
  local pseudopotential read in
  partial core-charges read in
  partial kinetic energy density read in
  kinetic energy density of atom read in
  atomic valenz-charges read in
  non local Contribution for L=           0  read in
    real space projection operators read in
  non local Contribution for L=           0  read in
    real space projection operators read in
  non local Contribution for L=           1  read in
    real space projection operators read in
  non local Contribution for L=           1  read in
    real space projection operators read in
    PAW grid and wavefunctions read in

   number of l-projection  operators is LMAX  =           4
   number of lm-projection operators is LMMAX =           8

 WARNING: PSMAXN for non-local potential too small
          PSMAXN should be >   13.554559223799082       NTYP=           1

 ----------------------------------------------------------------------------- 
|                                                                             |
|  ADVICE TO THIS USER RUNNING 'VASP/VAMP'   (HEAR YOUR MASTER'S VOICE ...):  |
|                                                                             |
|      You enforced a specific xc-type in the INCAR file,                     |
|      a different type was found on the POTCAR file                          |
|          I HOPE YOU KNOW, WHAT YOU ARE  DOING                               |
|                                                                             |
 ----------------------------------------------------------------------------- 

  PAW_PBE Ba_sv 06Sep2000               :
 energy of atom  1       EATOM= -700.8560
 kinetic energy error for atom=    0.0002 (will be added to EATOM!!)
  PAW_PBE Ti_sv 26Sep2005               :
 energy of atom  2       EATOM=-1588.0892
 kinetic energy error for atom=    0.0013 (will be added to EATOM!!)
  PAW_PBE O 08Apr2002                   :
 energy of atom  3       EATOM= -432.3788
 kinetic energy error for atom=    0.0091 (will be added to EATOM!!)


 POSCAR: Ba Ti O                                 
  positions in direct lattice
  No initial velocities read in
 exchange correlation table for  LEXCH =       14
   RHO(1)=    0.500       N(1)  =     2000
   RHO(2)=  100.500       N(2)  =     4000



--------------------------------------------------------------------------------------------------------


 ion  position               nearest neighbor table
   1  0.000  0.000  0.000-   3 2.82   4 2.82   5 2.82   4 2.82   5 2.82   3 2.82   4 2.82   4 2.82
                             3 2.82   5 2.82   5 2.82   3 2.82   2 3.45   2 3.45   2 3.45   2 3.45
   2  0.500  0.500  0.500-   3 1.99   4 1.99   5 1.99   3 1.99   5 1.99   4 1.99   1 3.45   1 3.45
                             1 3.45   1 3.45   1 3.45   1 3.45   1 3.45   1 3.45
   3  0.500  0.500  0.000-   2 1.99   2 1.99   1 2.82   1 2.82   1 2.82   1 2.82
   4  0.000  0.500  0.500-   2 1.99   2 1.99   1 2.82   1 2.82   1 2.82   1 2.82
   5  0.500  0.000  0.500-   2 1.99   2 1.99   1 2.82   1 2.82   1 2.82   1 2.82

  LATTYP: Found a simple cubic cell.
 ALAT       =     3.9843434111
  
  Lattice vectors:
  
 A1 = (   3.9843434111,   0.0000000000,   0.0000000000)
 A2 = (   0.0000000000,   3.9843434111,   0.0000000000)
 A3 = (   0.0000000000,   0.0000000000,   3.9843434111)


Analysis of symmetry for initial positions (statically):
=====================================================================
 Subroutine PRICEL returns:
 Original cell was already a primitive cell.
 

 Routine SETGRP: Setting up the symmetry group for a 
 simple cubic supercell.


 Subroutine GETGRP returns: Found 48 space group operations
 (whereof 48 operations were pure point group operations)
 out of a pool of 48 trial point group operations.


The static configuration has the point symmetry O_h .


Analysis of symmetry for dynamics (positions and initial velocities):
=====================================================================
 Subroutine PRICEL returns:
 Original cell was already a primitive cell.
 

 Routine SETGRP: Setting up the symmetry group for a 
 simple cubic supercell.


 Subroutine GETGRP returns: Found 48 space group operations
 (whereof 48 operations were pure point group operations)
 out of a pool of 48 trial point group operations.


The dynamic configuration has the point symmetry O_h .


 Subroutine INISYM returns: Found 48 space group operations
 (whereof 48 operations are pure point group operations),
 and found     1 'primitive' translations



 KPOINTS: Automatic mesh                          

Automatic generation of k-mesh.
Space group operators:
 irot       det(A)        alpha          n_x          n_y          n_z        tau_x        tau_y        tau_z
    1     1.000000     0.000000     1.000000     0.000000     0.000000     0.000000     0.000000     0.000000
    2    -1.000000     0.000000     1.000000     0.000000     0.000000     0.000000     0.000000     0.000000
    3     1.000000   120.000000    -0.577350    -0.577350    -0.577350     0.000000     0.000000     0.000000
    4    -1.000000   120.000000    -0.577350    -0.577350    -0.577350     0.000000     0.000000     0.000000
    5     1.000000   120.000000     0.577350     0.577350     0.577350     0.000000     0.000000     0.000000
    6    -1.000000   120.000000     0.577350     0.577350     0.577350     0.000000     0.000000     0.000000
    7     1.000000    90.000000     0.000000     0.000000    -1.000000     0.000000     0.000000     0.000000
    8    -1.000000    90.000000     0.000000     0.000000    -1.000000     0.000000     0.000000     0.000000
    9     1.000000   180.000000     0.000000     0.707107     0.707107     0.000000     0.000000     0.000000
   10    -1.000000   180.000000     0.000000     0.707107     0.707107     0.000000     0.000000     0.000000
   11     1.000000    90.000000     0.000000     1.000000     0.000000     0.000000     0.000000     0.000000
   12    -1.000000    90.000000     0.000000     1.000000     0.000000     0.000000     0.000000     0.000000
   13     1.000000   180.000000     0.000000     0.000000     1.000000     0.000000     0.000000     0.000000
   14    -1.000000   180.000000     0.000000     0.000000     1.000000     0.000000     0.000000     0.000000
   15     1.000000   120.000000    -0.577350     0.577350     0.577350     0.000000     0.000000     0.000000
   16    -1.000000   120.000000    -0.577350     0.577350     0.577350     0.000000     0.000000     0.000000
   17     1.000000   120.000000    -0.577350     0.577350    -0.577350     0.000000     0.000000     0.000000
   18    -1.000000   120.000000    -0.577350     0.577350    -0.577350     0.000000     0.000000     0.000000
   19     1.000000    90.000000     0.000000     0.000000     1.000000     0.000000     0.000000     0.000000
   20    -1.000000    90.000000     0.000000     0.000000     1.000000     0.000000     0.000000     0.000000
   21     1.000000    90.000000    -1.000000     0.000000     0.000000     0.000000     0.000000     0.000000
   22    -1.000000    90.000000    -1.000000     0.000000     0.000000     0.000000     0.000000     0.000000
   23     1.000000   180.000000     0.707107     0.000000     0.707107     0.000000     0.000000     0.000000
   24    -1.000000   180.000000     0.707107     0.000000     0.707107     0.000000     0.000000     0.000000
   25     1.000000   120.000000     0.577350    -0.577350     0.577350     0.000000     0.000000     0.000000
   26    -1.000000   120.000000     0.577350    -0.577350     0.577350     0.000000     0.000000     0.000000
   27     1.000000   120.000000    -0.577350    -0.577350     0.577350     0.000000     0.000000     0.000000
   28    -1.000000   120.000000    -0.577350    -0.577350     0.577350     0.000000     0.000000     0.000000
   29     1.000000   180.000000     1.000000     0.000000     0.000000     0.000000     0.000000     0.000000
   30    -1.000000   180.000000     1.000000     0.000000     0.000000     0.000000     0.000000     0.000000
   31     1.000000    90.000000     0.000000    -1.000000     0.000000     0.000000     0.000000     0.000000
   32    -1.000000    90.000000     0.000000    -1.000000     0.000000     0.000000     0.000000     0.000000
   33     1.000000   180.000000     0.707107     0.707107     0.000000     0.000000     0.000000     0.000000
   34    -1.000000   180.000000     0.707107     0.707107     0.000000     0.000000     0.000000     0.000000
   35     1.000000    90.000000     1.000000     0.000000     0.000000     0.000000     0.000000     0.000000
   36    -1.000000    90.000000     1.000000     0.000000     0.000000     0.000000     0.000000     0.000000
   37     1.000000   120.000000     0.577350    -0.577350    -0.577350     0.000000     0.000000     0.000000
   38    -1.000000   120.000000     0.577350    -0.577350    -0.577350     0.000000     0.000000     0.000000
   39     1.000000   180.000000     0.000000     1.000000     0.000000     0.000000     0.000000     0.000000
   40    -1.000000   180.000000     0.000000     1.000000     0.000000     0.000000     0.000000     0.000000
   41     1.000000   120.000000     0.577350     0.577350    -0.577350     0.000000     0.000000     0.000000
   42    -1.000000   120.000000     0.577350     0.577350    -0.577350     0.000000     0.000000     0.000000
   43     1.000000   180.000000     0.000000    -0.707107     0.707107     0.000000     0.000000     0.000000
   44    -1.000000   180.000000     0.000000    -0.707107     0.707107     0.000000     0.000000     0.000000
   45     1.000000   180.000000     0.707107    -0.707107     0.000000     0.000000     0.000000     0.000000
   46    -1.000000   180.000000     0.707107    -0.707107     0.000000     0.000000     0.000000     0.000000
   47     1.000000   180.000000     0.707107     0.000000    -0.707107     0.000000     0.000000     0.000000
   48    -1.000000   180.000000     0.707107     0.000000    -0.707107     0.000000     0.000000     0.000000
 
 Subroutine IBZKPT returns following result:
 ===========================================
 
 Found    120 irreducible k-points:
 
 Following reciprocal coordinates:
            Coordinates               Weight
  0.000000  0.000000  0.000000      1.000000
  0.066667  0.000000  0.000000      6.000000
  0.133333  0.000000  0.000000      6.000000
  0.200000  0.000000  0.000000      6.000000
  0.266667  0.000000  0.000000      6.000000
  0.333333  0.000000  0.000000      6.000000
  0.400000  0.000000  0.000000      6.000000
  0.466667  0.000000  0.000000      6.000000
  0.066667  0.066667  0.000000     12.000000
  0.133333  0.066667  0.000000     24.000000
  0.200000  0.066667  0.000000     24.000000
  0.266667  0.066667  0.000000     24.000000
  0.333333  0.066667  0.000000     24.000000
  0.400000  0.066667  0.000000     24.000000
  0.466667  0.066667  0.000000     24.000000
  0.133333  0.133333  0.000000     12.000000
  0.200000  0.133333  0.000000     24.000000
  0.266667  0.133333  0.000000     24.000000
  0.333333  0.133333  0.000000     24.000000
  0.400000  0.133333  0.000000     24.000000
  0.466667  0.133333  0.000000     24.000000
  0.200000  0.200000  0.000000     12.000000
  0.266667  0.200000  0.000000     24.000000
  0.333333  0.200000  0.000000     24.000000
  0.400000  0.200000  0.000000     24.000000
  0.466667  0.200000  0.000000     24.000000
  0.266667  0.266667  0.000000     12.000000
  0.333333  0.266667  0.000000     24.000000
  0.400000  0.266667  0.000000     24.000000
  0.466667  0.266667  0.000000     24.000000
  0.333333  0.333333  0.000000     12.000000
  0.400000  0.333333  0.000000     24.000000
  0.466667  0.333333  0.000000     24.000000
  0.400000  0.400000  0.000000     12.000000
  0.466667  0.400000  0.000000     24.000000
  0.466667  0.466667  0.000000     12.000000
  0.066667  0.066667  0.066667      8.000000
  0.133333  0.066667  0.066667     24.000000
  0.200000  0.066667  0.066667     24.000000
  0.266667  0.066667  0.066667     24.000000
  0.333333  0.066667  0.066667     24.000000
  0.400000  0.066667  0.066667     24.000000
  0.466667  0.066667  0.066667     24.000000
  0.133333  0.133333  0.066667     24.000000
  0.200000  0.133333  0.066667     48.000000
  0.266667  0.133333  0.066667     48.000000
  0.333333  0.133333  0.066667     48.000000
  0.400000  0.133333  0.066667     48.000000
  0.466667  0.133333  0.066667     48.000000
  0.200000  0.200000  0.066667     24.000000
  0.266667  0.200000  0.066667     48.000000
  0.333333  0.200000  0.066667     48.000000
  0.400000  0.200000  0.066667     48.000000
  0.466667  0.200000  0.066667     48.000000
  0.266667  0.266667  0.066667     24.000000
  0.333333  0.266667  0.066667     48.000000
  0.400000  0.266667  0.066667     48.000000
  0.466667  0.266667  0.066667     48.000000
  0.333333  0.333333  0.066667     24.000000
  0.400000  0.333333  0.066667     48.000000
  0.466667  0.333333  0.066667     48.000000
  0.400000  0.400000  0.066667     24.000000
  0.466667  0.400000  0.066667     48.000000
  0.466667  0.466667  0.066667     24.000000
  0.133333  0.133333  0.133333      8.000000
  0.200000  0.133333  0.133333     24.000000
  0.266667  0.133333  0.133333     24.000000
  0.333333  0.133333  0.133333     24.000000
  0.400000  0.133333  0.133333     24.000000
  0.466667  0.133333  0.133333     24.000000
  0.200000  0.200000  0.133333     24.000000
  0.266667  0.200000  0.133333     48.000000
  0.333333  0.200000  0.133333     48.000000
  0.400000  0.200000  0.133333     48.000000
  0.466667  0.200000  0.133333     48.000000
  0.266667  0.266667  0.133333     24.000000
  0.333333  0.266667  0.133333     48.000000
  0.400000  0.266667  0.133333     48.000000
  0.466667  0.266667  0.133333     48.000000
  0.333333  0.333333  0.133333     24.000000
  0.400000  0.333333  0.133333     48.000000
  0.466667  0.333333  0.133333     48.000000
  0.400000  0.400000  0.133333     24.000000
  0.466667  0.400000  0.133333     48.000000
  0.466667  0.466667  0.133333     24.000000
  0.200000  0.200000  0.200000      8.000000
  0.266667  0.200000  0.200000     24.000000
  0.333333  0.200000  0.200000     24.000000
  0.400000  0.200000  0.200000     24.000000
  0.466667  0.200000  0.200000     24.000000
  0.266667  0.266667  0.200000     24.000000
  0.333333  0.266667  0.200000     48.000000
  0.400000  0.266667  0.200000     48.000000
  0.466667  0.266667  0.200000     48.000000
  0.333333  0.333333  0.200000     24.000000
  0.400000  0.333333  0.200000     48.000000
  0.466667  0.333333  0.200000     48.000000
  0.400000  0.400000  0.200000     24.000000
  0.466667  0.400000  0.200000     48.000000
  0.466667  0.466667  0.200000     24.000000
  0.266667  0.266667  0.266667      8.000000
  0.333333  0.266667  0.266667     24.000000
  0.400000  0.266667  0.266667     24.000000
  0.466667  0.266667  0.266667     24.000000
  0.333333  0.333333  0.266667     24.000000
  0.400000  0.333333  0.266667     48.000000
  0.466667  0.333333  0.266667     48.000000
  0.400000  0.400000  0.266667     24.000000
  0.466667  0.400000  0.266667     48.000000
  0.466667  0.466667  0.266667     24.000000
  0.333333  0.333333  0.333333      8.000000
  0.400000  0.333333  0.333333     24.000000
  0.466667  0.333333  0.333333     24.000000
  0.400000  0.400000  0.333333     24.000000
  0.466667  0.400000  0.333333     48.000000
  0.466667  0.466667  0.333333     24.000000
  0.400000  0.400000  0.400000      8.000000
  0.466667  0.400000  0.400000     24.000000
  0.466667  0.466667  0.400000     24.000000
  0.466667  0.466667  0.466667      8.000000
 
 Following cartesian coordinates:
            Coordinates               Weight
  0.000000  0.000000  0.000000      1.000000
  0.016732  0.000000  0.000000      6.000000
  0.033464  0.000000  0.000000      6.000000
  0.050196  0.000000  0.000000      6.000000
  0.066929  0.000000  0.000000      6.000000
  0.083661  0.000000  0.000000      6.000000
  0.100393  0.000000  0.000000      6.000000
  0.117125  0.000000  0.000000      6.000000
  0.016732  0.016732  0.000000     12.000000
  0.033464  0.016732  0.000000     24.000000
  0.050196  0.016732  0.000000     24.000000
  0.066929  0.016732  0.000000     24.000000
  0.083661  0.016732  0.000000     24.000000
  0.100393  0.016732  0.000000     24.000000
  0.117125  0.016732  0.000000     24.000000
  0.033464  0.033464  0.000000     12.000000
  0.050196  0.033464  0.000000     24.000000
  0.066929  0.033464  0.000000     24.000000
  0.083661  0.033464  0.000000     24.000000
  0.100393  0.033464  0.000000     24.000000
  0.117125  0.033464  0.000000     24.000000
  0.050196  0.050196  0.000000     12.000000
  0.066929  0.050196  0.000000     24.000000
  0.083661  0.050196  0.000000     24.000000
  0.100393  0.050196  0.000000     24.000000
  0.117125  0.050196  0.000000     24.000000
  0.066929  0.066929  0.000000     12.000000
  0.083661  0.066929  0.000000     24.000000
  0.100393  0.066929  0.000000     24.000000
  0.117125  0.066929  0.000000     24.000000
  0.083661  0.083661  0.000000     12.000000
  0.100393  0.083661  0.000000     24.000000
  0.117125  0.083661  0.000000     24.000000
  0.100393  0.100393  0.000000     12.000000
  0.117125  0.100393  0.000000     24.000000
  0.117125  0.117125  0.000000     12.000000
  0.016732  0.016732  0.016732      8.000000
  0.033464  0.016732  0.016732     24.000000
  0.050196  0.016732  0.016732     24.000000
  0.066929  0.016732  0.016732     24.000000
  0.083661  0.016732  0.016732     24.000000
  0.100393  0.016732  0.016732     24.000000
  0.117125  0.016732  0.016732     24.000000
  0.033464  0.033464  0.016732     24.000000
  0.050196  0.033464  0.016732     48.000000
  0.066929  0.033464  0.016732     48.000000
  0.083661  0.033464  0.016732     48.000000
  0.100393  0.033464  0.016732     48.000000
  0.117125  0.033464  0.016732     48.000000
  0.050196  0.050196  0.016732     24.000000
  0.066929  0.050196  0.016732     48.000000
  0.083661  0.050196  0.016732     48.000000
  0.100393  0.050196  0.016732     48.000000
  0.117125  0.050196  0.016732     48.000000
  0.066929  0.066929  0.016732     24.000000
  0.083661  0.066929  0.016732     48.000000
  0.100393  0.066929  0.016732     48.000000
  0.117125  0.066929  0.016732     48.000000
  0.083661  0.083661  0.016732     24.000000
  0.100393  0.083661  0.016732     48.000000
  0.117125  0.083661  0.016732     48.000000
  0.100393  0.100393  0.016732     24.000000
  0.117125  0.100393  0.016732     48.000000
  0.117125  0.117125  0.016732     24.000000
  0.033464  0.033464  0.033464      8.000000
  0.050196  0.033464  0.033464     24.000000
  0.066929  0.033464  0.033464     24.000000
  0.083661  0.033464  0.033464     24.000000
  0.100393  0.033464  0.033464     24.000000
  0.117125  0.033464  0.033464     24.000000
  0.050196  0.050196  0.033464     24.000000
  0.066929  0.050196  0.033464     48.000000
  0.083661  0.050196  0.033464     48.000000
  0.100393  0.050196  0.033464     48.000000
  0.117125  0.050196  0.033464     48.000000
  0.066929  0.066929  0.033464     24.000000
  0.083661  0.066929  0.033464     48.000000
  0.100393  0.066929  0.033464     48.000000
  0.117125  0.066929  0.033464     48.000000
  0.083661  0.083661  0.033464     24.000000
  0.100393  0.083661  0.033464     48.000000
  0.117125  0.083661  0.033464     48.000000
  0.100393  0.100393  0.033464     24.000000
  0.117125  0.100393  0.033464     48.000000
  0.117125  0.117125  0.033464     24.000000
  0.050196  0.050196  0.050196      8.000000
  0.066929  0.050196  0.050196     24.000000
  0.083661  0.050196  0.050196     24.000000
  0.100393  0.050196  0.050196     24.000000
  0.117125  0.050196  0.050196     24.000000
  0.066929  0.066929  0.050196     24.000000
  0.083661  0.066929  0.050196     48.000000
  0.100393  0.066929  0.050196     48.000000
  0.117125  0.066929  0.050196     48.000000
  0.083661  0.083661  0.050196     24.000000
  0.100393  0.083661  0.050196     48.000000
  0.117125  0.083661  0.050196     48.000000
  0.100393  0.100393  0.050196     24.000000
  0.117125  0.100393  0.050196     48.000000
  0.117125  0.117125  0.050196     24.000000
  0.066929  0.066929  0.066929      8.000000
  0.083661  0.066929  0.066929     24.000000
  0.100393  0.066929  0.066929     24.000000
  0.117125  0.066929  0.066929     24.000000
  0.083661  0.083661  0.066929     24.000000
  0.100393  0.083661  0.066929     48.000000
  0.117125  0.083661  0.066929     48.000000
  0.100393  0.100393  0.066929     24.000000
  0.117125  0.100393  0.066929     48.000000
  0.117125  0.117125  0.066929     24.000000
  0.083661  0.083661  0.083661      8.000000
  0.100393  0.083661  0.083661     24.000000
  0.117125  0.083661  0.083661     24.000000
  0.100393  0.100393  0.083661     24.000000
  0.117125  0.100393  0.083661     48.000000
  0.117125  0.117125  0.083661     24.000000
  0.100393  0.100393  0.100393      8.000000
  0.117125  0.100393  0.100393     24.000000
  0.117125  0.117125  0.100393     24.000000
  0.117125  0.117125  0.117125      8.000000
 
 TETIRR: Found   1667 inequivalent tetrahedra from    20250


--------------------------------------------------------------------------------------------------------




 Dimension of arrays:
   k-points           NKPTS =    120   k-points in BZ     NKDIM =    120   number of bands    NBANDS=     24
   number of dos      NEDOS =   3001   number of ions     NIONS =      5
   non local maximal  LDIM  =      6   non local SUM 2l+1 LMDIM =     18
   total plane-waves  NPLWV =  46656
   max r-space proj   IRMAX =      1   max aug-charges    IRDMAX= 369541
   dimension x,y,z NGX =    36 NGY =   36 NGZ =   36
   dimension x,y,z NGXF=    72 NGYF=   72 NGZF=   72
   support grid    NGXF=   144 NGYF=  144 NGZF=  144
   ions per type =               1   1   3
   NGX,Y,Z   is equivalent  to a cutoff of  15.02, 15.02, 15.02 a.u.
   NGXF,Y,Z  is equivalent  to a cutoff of  30.04, 30.04, 30.04 a.u.

 SYSTEM =  BaTiO3                                  
 POSCAR =  Ba Ti O                                 

 Startparameter for this run:
   NWRITE =      2    write-flag & timer
   PREC   = accura    normal or accurate (medium, high low for compatibility)
   ISTART =      0    job   : 0-new  1-cont  2-samecut
   ICHARG =     11    charge: 1-file 2-atom 10-const
   ISPIN  =      1    spin polarized calculation?
   LNONCOLLINEAR =      F non collinear calculations
   LSORBIT =      F    spin-orbit coupling
   INIWAV =      1    electr: 0-lowe 1-rand  2-diag
   LASPH  =      F    aspherical Exc in radial PAW
   METAGGA=      F    non-selfconsistent MetaGGA calc.

 Electronic Relaxation 1
   ENCUT  =  700.0 eV  51.45 Ry    7.17 a.u.   8.60  8.60  8.60*2*pi/ulx,y,z
   ENINI  =  700.0     initial cutoff
   ENAUG  =    1.0 eV  augmentation charge cutoff
   NELM   =     40;   NELMIN=  2; NELMDL=  0     # of ELM steps 
   EDIFF  = 0.1E-07   stopping-criterion for ELM
   LREAL  =      F    real-space projection
   NLSPLINE    = F    spline interpolate recip. space projectors
   LCOMPAT=      F    compatible to vasp.4.4
   GGA_COMPAT  = T    GGA compatible to vasp.4.4-vasp.4.6
   LMAXPAW     = -100 max onsite density
   LMAXMIX     =    2 max onsite mixed and CHGCAR
   VOSKOWN=      0    Vosko Wilk Nusair interpolation
   ROPT   =    0.00000   0.00000   0.00000
 Ionic relaxation
   EDIFFG = 0.1E-06   stopping-criterion for IOM
   NSW    =      0    number of steps for IOM
   NBLOCK =      1;   KBLOCK =      1    inner block; outer block 
   IBRION =     -1    ionic relax: 0-MD 1-quasi-New 2-CG
   NFREE  =      0    steps in history (QN), initial steepest desc. (CG)
   ISIF   =      2    stress and relaxation
   IWAVPR =     10    prediction:  0-non 1-charg 2-wave 3-comb
   ISYM   =      2    0-nonsym 1-usesym 2-fastsym
   LCORR  =      T    Harris-Foulkes like correction to forces

   POTIM  = 0.5000    time-step for ionic-motion
   TEIN   =    0.0    initial temperature
   TEBEG  =    0.0;   TEEND  =   0.0 temperature during run
   SMASS  =  -3.00    Nose mass-parameter (am)
   estimated Nose-frequenzy (Omega)   =  0.10E-29 period in steps =****** mass=  -0.363E-27a.u.
   SCALEE = 1.0000    scale energy and forces
   NPACO  =    256;   APACO  = 16.0  distance and # of slots for P.C.
   PSTRESS=    0.0 pullay stress

  Mass of Ions in am
   POMASS = 137.33 47.88 16.00
  Ionic Valenz
   ZVAL   =  10.00 12.00  6.00
  Atomic Wigner-Seitz radii
   RWIGS  =  -1.00 -1.00 -1.00
  virtual crystal weights 
   VCA    =   1.00  1.00  1.00
   NELECT =      40.0000    total number of electrons
   NUPDOWN=      -1.0000    fix difference up-down

 DOS related values:
   EMIN   = -15.00;   EMAX   = 15.00  energy-range for DOS
   EFERMI =   0.00
   ISMEAR =    -5;   SIGMA  =   0.01  broadening in eV -4-tet -1-fermi 0-gaus

 Electronic relaxation 2 (details)
   IALGO  =     38    algorithm
   LDIAG  =      T    sub-space diagonalisation (order eigenvalues)
   LSUBROT=      F    optimize rotation matrix (better conditioning)
   TURBO    =      0    0=normal 1=particle mesh
   IRESTART =      0    0=no restart 2=restart with 2 vectors
   NREBOOT  =      0    no. of reboots
   NMIN     =      0    reboot dimension
   EREF     =   0.00    reference energy to select bands
   IMIX   =      4    mixing-type and parameters
     AMIX     =   0.40;   BMIX     =  1.00
     AMIX_MAG =   1.60;   BMIX_MAG =  1.00
     AMIN     =   0.10
     WC   =   100.;   INIMIX=   1;  MIXPRE=   1;  MAXMIX= -45

 Intra band minimization:
   WEIMIN = 0.0000     energy-eigenvalue tresh-hold
   EBREAK =  0.10E-09  absolut break condition
   DEPER  =   0.30     relativ break condition  

   TIME   =   0.40     timestep for ELM

  volume/ion in A,a.u.               =      12.65        85.37
  Fermi-wavevector in a.u.,A,eV,Ry     =   1.405200  2.655442 26.865878  1.974586
  Thomas-Fermi vector in A             =   2.527685

 Write flags
   LWAVE        =      F    write WAVECAR
   LDOWNSAMPLE  =      F    k-point downsampling of WAVECAR
   LCHARG       =      T    write CHGCAR
   LVTOT        =      F    write LOCPOT, total local potential
   LVHAR        =      F    write LOCPOT, Hartree potential only
   LELF         =      F    write electronic localiz. function (ELF)
   LORBIT       =     11    0 simple, 1 ext, 2 COOP (PROOUT), +10 PAW based schemes


 Dipole corrections
   LMONO  =      F    monopole corrections only (constant potential shift)
   LDIPOL =      F    correct potential (dipole corrections)
   IDIPOL =      0    1-x, 2-y, 3-z, 4-all directions 
   EPSILON=  1.0000000 bulk dielectric constant

 Exchange correlation treatment:
   GGA     =    PS    GGA type
   LEXCH   =    14    internal setting for exchange type
   VOSKOWN=      0    Vosko Wilk Nusair interpolation
   LHFCALC =     F    Hartree Fock is set to
   LHFONE  =     F    Hartree Fock one center treatment
   AEXX    =    0.0000 exact exchange contribution

 Linear response parameters
   LEPSILON=     F    determine dielectric tensor
   LRPA    =     F    only Hartree local field effects (RPA)
   LNABLA  =     F    use nabla operator in PAW spheres
   LVEL    =     F    velocity operator in full k-point grid
   LINTERFAST=   F  fast interpolation
   KINTER  =     0    interpolate to denser k-point grid
   CSHIFT  =0.1000    complex shift for real part using Kramers Kronig
   OMEGAMAX=  -1.0    maximum frequency
   DEG_THRESHOLD= 0.2000000E-02 threshold for treating states as degnerate
   RTIME   =   -0.100 relaxation time in fs
  (WPLASMAI=    0.000 imaginary part of plasma frequency in eV, 0.658/RTIME)
   DFIELD  = 0.0000000 0.0000000 0.0000000 field for delta impulse in time

 Orbital magnetization related:
   ORBITALMAG=     F  switch on orbital magnetization
   LCHIMAG   =     F  perturbation theory with respect to B field
   DQ        =  0.001000  dq finite difference perturbation B field
   LLRAUG    =     F  two centre corrections for induced B field



--------------------------------------------------------------------------------------------------------


 Static calculation
 charge density and potential remain constant during run
 non-spin polarized calculation
 Variant of blocked Davidson
 Davidson routine will perform the subspace rotation
 perform sub-space diagonalisation
    after iterative eigenvector-optimisation
 no mixing
 using additional bands            4
 reciprocal scheme for non local part
 use partial core corrections
 calculate Harris-corrections to forces   (improved forces if not selfconsistent)
 use gradient corrections 
 WARNING: stress and forces are not correct
  (second derivative of E(xc) not defined)
 use of overlap-Matrix (Vanderbilt PP)
 Fermi weights with tetrahedron method with Bloechl corrections


--------------------------------------------------------------------------------------------------------


  energy-cutoff  :      700.00
  volume of cell :       63.25
      direct lattice vectors                 reciprocal lattice vectors
     3.984343411  0.000000000  0.000000000     0.250982382  0.000000000  0.000000000
     0.000000000  3.984343411  0.000000000     0.000000000  0.250982382  0.000000000
     0.000000000  0.000000000  3.984343411     0.000000000  0.000000000  0.250982382

  length of vectors
     3.984343411  3.984343411  3.984343411     0.250982382  0.250982382  0.250982382



 k-points in units of 2pi/SCALE and weight: Automatic mesh                          
   0.00000000  0.00000000  0.00000000       0.000
   0.01673216  0.00000000  0.00000000       0.002
   0.03346432  0.00000000  0.00000000       0.002
   0.05019648  0.00000000  0.00000000       0.002
   0.06692864  0.00000000  0.00000000       0.002
   0.08366079  0.00000000  0.00000000       0.002
   0.10039295  0.00000000  0.00000000       0.002
   0.11712511  0.00000000  0.00000000       0.002
   0.01673216  0.01673216  0.00000000       0.004
   0.03346432  0.01673216  0.00000000       0.007
   0.05019648  0.01673216  0.00000000       0.007
   0.06692864  0.01673216  0.00000000       0.007
   0.08366079  0.01673216  0.00000000       0.007
   0.10039295  0.01673216  0.00000000       0.007
   0.11712511  0.01673216  0.00000000       0.007
   0.03346432  0.03346432  0.00000000       0.004
   0.05019648  0.03346432  0.00000000       0.007
   0.06692864  0.03346432  0.00000000       0.007
   0.08366079  0.03346432  0.00000000       0.007
   0.10039295  0.03346432  0.00000000       0.007
   0.11712511  0.03346432  0.00000000       0.007
   0.05019648  0.05019648  0.00000000       0.004
   0.06692864  0.05019648  0.00000000       0.007
   0.08366079  0.05019648  0.00000000       0.007
   0.10039295  0.05019648  0.00000000       0.007
   0.11712511  0.05019648  0.00000000       0.007
   0.06692864  0.06692864  0.00000000       0.004
   0.08366079  0.06692864  0.00000000       0.007
   0.10039295  0.06692864  0.00000000       0.007
   0.11712511  0.06692864  0.00000000       0.007
   0.08366079  0.08366079  0.00000000       0.004
   0.10039295  0.08366079  0.00000000       0.007
   0.11712511  0.08366079  0.00000000       0.007
   0.10039295  0.10039295  0.00000000       0.004
   0.11712511  0.10039295  0.00000000       0.007
   0.11712511  0.11712511  0.00000000       0.004
   0.01673216  0.01673216  0.01673216       0.002
   0.03346432  0.01673216  0.01673216       0.007
   0.05019648  0.01673216  0.01673216       0.007
   0.06692864  0.01673216  0.01673216       0.007
   0.08366079  0.01673216  0.01673216       0.007
   0.10039295  0.01673216  0.01673216       0.007
   0.11712511  0.01673216  0.01673216       0.007
   0.03346432  0.03346432  0.01673216       0.007
   0.05019648  0.03346432  0.01673216       0.014
   0.06692864  0.03346432  0.01673216       0.014
   0.08366079  0.03346432  0.01673216       0.014
   0.10039295  0.03346432  0.01673216       0.014
   0.11712511  0.03346432  0.01673216       0.014
   0.05019648  0.05019648  0.01673216       0.007
   0.06692864  0.05019648  0.01673216       0.014
   0.08366079  0.05019648  0.01673216       0.014
   0.10039295  0.05019648  0.01673216       0.014
   0.11712511  0.05019648  0.01673216       0.014
   0.06692864  0.06692864  0.01673216       0.007
   0.08366079  0.06692864  0.01673216       0.014
   0.10039295  0.06692864  0.01673216       0.014
   0.11712511  0.06692864  0.01673216       0.014
   0.08366079  0.08366079  0.01673216       0.007
   0.10039295  0.08366079  0.01673216       0.014
   0.11712511  0.08366079  0.01673216       0.014
   0.10039295  0.10039295  0.01673216       0.007
   0.11712511  0.10039295  0.01673216       0.014
   0.11712511  0.11712511  0.01673216       0.007
   0.03346432  0.03346432  0.03346432       0.002
   0.05019648  0.03346432  0.03346432       0.007
   0.06692864  0.03346432  0.03346432       0.007
   0.08366079  0.03346432  0.03346432       0.007
   0.10039295  0.03346432  0.03346432       0.007
   0.11712511  0.03346432  0.03346432       0.007
   0.05019648  0.05019648  0.03346432       0.007
   0.06692864  0.05019648  0.03346432       0.014
   0.08366079  0.05019648  0.03346432       0.014
   0.10039295  0.05019648  0.03346432       0.014
   0.11712511  0.05019648  0.03346432       0.014
   0.06692864  0.06692864  0.03346432       0.007
   0.08366079  0.06692864  0.03346432       0.014
   0.10039295  0.06692864  0.03346432       0.014
   0.11712511  0.06692864  0.03346432       0.014
   0.08366079  0.08366079  0.03346432       0.007
   0.10039295  0.08366079  0.03346432       0.014
   0.11712511  0.08366079  0.03346432       0.014
   0.10039295  0.10039295  0.03346432       0.007
   0.11712511  0.10039295  0.03346432       0.014
   0.11712511  0.11712511  0.03346432       0.007
   0.05019648  0.05019648  0.05019648       0.002
   0.06692864  0.05019648  0.05019648       0.007
   0.08366079  0.05019648  0.05019648       0.007
   0.10039295  0.05019648  0.05019648       0.007
   0.11712511  0.05019648  0.05019648       0.007
   0.06692864  0.06692864  0.05019648       0.007
   0.08366079  0.06692864  0.05019648       0.014
   0.10039295  0.06692864  0.05019648       0.014
   0.11712511  0.06692864  0.05019648       0.014
   0.08366079  0.08366079  0.05019648       0.007
   0.10039295  0.08366079  0.05019648       0.014
   0.11712511  0.08366079  0.05019648       0.014
   0.10039295  0.10039295  0.05019648       0.007
   0.11712511  0.10039295  0.05019648       0.014
   0.11712511  0.11712511  0.05019648       0.007
   0.06692864  0.06692864  0.06692864       0.002
   0.08366079  0.06692864  0.06692864       0.007
   0.10039295  0.06692864  0.06692864       0.007
   0.11712511  0.06692864  0.06692864       0.007
   0.08366079  0.08366079  0.06692864       0.007
   0.10039295  0.08366079  0.06692864       0.014
   0.11712511  0.08366079  0.06692864       0.014
   0.10039295  0.10039295  0.06692864       0.007
   0.11712511  0.10039295  0.06692864       0.014
   0.11712511  0.11712511  0.06692864       0.007
   0.08366079  0.08366079  0.08366079       0.002
   0.10039295  0.08366079  0.08366079       0.007
   0.11712511  0.08366079  0.08366079       0.007
   0.10039295  0.10039295  0.08366079       0.007
   0.11712511  0.10039295  0.08366079       0.014
   0.11712511  0.11712511  0.08366079       0.007
   0.10039295  0.10039295  0.10039295       0.002
   0.11712511  0.10039295  0.10039295       0.007
   0.11712511  0.11712511  0.10039295       0.007
   0.11712511  0.11712511  0.11712511       0.002

 k-points in reciprocal lattice and weights: Automatic mesh                          
   0.00000000  0.00000000  0.00000000       0.000
   0.06666667  0.00000000  0.00000000       0.002
   0.13333333  0.00000000  0.00000000       0.002
   0.20000000  0.00000000  0.00000000       0.002
   0.26666667  0.00000000  0.00000000       0.002
   0.33333333  0.00000000  0.00000000       0.002
   0.40000000  0.00000000  0.00000000       0.002
   0.46666667  0.00000000  0.00000000       0.002
   0.06666667  0.06666667  0.00000000       0.004
   0.13333333  0.06666667  0.00000000       0.007
   0.20000000  0.06666667  0.00000000       0.007
   0.26666667  0.06666667  0.00000000       0.007
   0.33333333  0.06666667  0.00000000       0.007
   0.40000000  0.06666667  0.00000000       0.007
   0.46666667  0.06666667  0.00000000       0.007
   0.13333333  0.13333333  0.00000000       0.004
   0.20000000  0.13333333  0.00000000       0.007
   0.26666667  0.13333333  0.00000000       0.007
   0.33333333  0.13333333  0.00000000       0.007
   0.40000000  0.13333333  0.00000000       0.007
   0.46666667  0.13333333  0.00000000       0.007
   0.20000000  0.20000000  0.00000000       0.004
   0.26666667  0.20000000  0.00000000       0.007
   0.33333333  0.20000000  0.00000000       0.007
   0.40000000  0.20000000  0.00000000       0.007
   0.46666667  0.20000000  0.00000000       0.007
   0.26666667  0.26666667  0.00000000       0.004
   0.33333333  0.26666667  0.00000000       0.007
   0.40000000  0.26666667  0.00000000       0.007
   0.46666667  0.26666667  0.00000000       0.007
   0.33333333  0.33333333  0.00000000       0.004
   0.40000000  0.33333333  0.00000000       0.007
   0.46666667  0.33333333  0.00000000       0.007
   0.40000000  0.40000000  0.00000000       0.004
   0.46666667  0.40000000  0.00000000       0.007
   0.46666667  0.46666667  0.00000000       0.004
   0.06666667  0.06666667  0.06666667       0.002
   0.13333333  0.06666667  0.06666667       0.007
   0.20000000  0.06666667  0.06666667       0.007
   0.26666667  0.06666667  0.06666667       0.007
   0.33333333  0.06666667  0.06666667       0.007
   0.40000000  0.06666667  0.06666667       0.007
   0.46666667  0.06666667  0.06666667       0.007
   0.13333333  0.13333333  0.06666667       0.007
   0.20000000  0.13333333  0.06666667       0.014
   0.26666667  0.13333333  0.06666667       0.014
   0.33333333  0.13333333  0.06666667       0.014
   0.40000000  0.13333333  0.06666667       0.014
   0.46666667  0.13333333  0.06666667       0.014
   0.20000000  0.20000000  0.06666667       0.007
   0.26666667  0.20000000  0.06666667       0.014
   0.33333333  0.20000000  0.06666667       0.014
   0.40000000  0.20000000  0.06666667       0.014
   0.46666667  0.20000000  0.06666667       0.014
   0.26666667  0.26666667  0.06666667       0.007
   0.33333333  0.26666667  0.06666667       0.014
   0.40000000  0.26666667  0.06666667       0.014
   0.46666667  0.26666667  0.06666667       0.014
   0.33333333  0.33333333  0.06666667       0.007
   0.40000000  0.33333333  0.06666667       0.014
   0.46666667  0.33333333  0.06666667       0.014
   0.40000000  0.40000000  0.06666667       0.007
   0.46666667  0.40000000  0.06666667       0.014
   0.46666667  0.46666667  0.06666667       0.007
   0.13333333  0.13333333  0.13333333       0.002
   0.20000000  0.13333333  0.13333333       0.007
   0.26666667  0.13333333  0.13333333       0.007
   0.33333333  0.13333333  0.13333333       0.007
   0.40000000  0.13333333  0.13333333       0.007
   0.46666667  0.13333333  0.13333333       0.007
   0.20000000  0.20000000  0.13333333       0.007
   0.26666667  0.20000000  0.13333333       0.014
   0.33333333  0.20000000  0.13333333       0.014
   0.40000000  0.20000000  0.13333333       0.014
   0.46666667  0.20000000  0.13333333       0.014
   0.26666667  0.26666667  0.13333333       0.007
   0.33333333  0.26666667  0.13333333       0.014
   0.40000000  0.26666667  0.13333333       0.014
   0.46666667  0.26666667  0.13333333       0.014
   0.33333333  0.33333333  0.13333333       0.007
   0.40000000  0.33333333  0.13333333       0.014
   0.46666667  0.33333333  0.13333333       0.014
   0.40000000  0.40000000  0.13333333       0.007
   0.46666667  0.40000000  0.13333333       0.014
   0.46666667  0.46666667  0.13333333       0.007
   0.20000000  0.20000000  0.20000000       0.002
   0.26666667  0.20000000  0.20000000       0.007
   0.33333333  0.20000000  0.20000000       0.007
   0.40000000  0.20000000  0.20000000       0.007
   0.46666667  0.20000000  0.20000000       0.007
   0.26666667  0.26666667  0.20000000       0.007
   0.33333333  0.26666667  0.20000000       0.014
   0.40000000  0.26666667  0.20000000       0.014
   0.46666667  0.26666667  0.20000000       0.014
   0.33333333  0.33333333  0.20000000       0.007
   0.40000000  0.33333333  0.20000000       0.014
   0.46666667  0.33333333  0.20000000       0.014
   0.40000000  0.40000000  0.20000000       0.007
   0.46666667  0.40000000  0.20000000       0.014
   0.46666667  0.46666667  0.20000000       0.007
   0.26666667  0.26666667  0.26666667       0.002
   0.33333333  0.26666667  0.26666667       0.007
   0.40000000  0.26666667  0.26666667       0.007
   0.46666667  0.26666667  0.26666667       0.007
   0.33333333  0.33333333  0.26666667       0.007
   0.40000000  0.33333333  0.26666667       0.014
   0.46666667  0.33333333  0.26666667       0.014
   0.40000000  0.40000000  0.26666667       0.007
   0.46666667  0.40000000  0.26666667       0.014
   0.46666667  0.46666667  0.26666667       0.007
   0.33333333  0.33333333  0.33333333       0.002
   0.40000000  0.33333333  0.33333333       0.007
   0.46666667  0.33333333  0.33333333       0.007
   0.40000000  0.40000000  0.33333333       0.007
   0.46666667  0.40000000  0.33333333       0.014
   0.46666667  0.46666667  0.33333333       0.007
   0.40000000  0.40000000  0.40000000       0.002
   0.46666667  0.40000000  0.40000000       0.007
   0.46666667  0.46666667  0.40000000       0.007
   0.46666667  0.46666667  0.46666667       0.002

 position of ions in fractional coordinates (direct lattice) 
   0.00000000  0.00000000  0.00000000
   0.50000000  0.50000000  0.50000000
   0.50000000  0.50000000  0.00000000
   0.00000000  0.50000000  0.50000000
   0.50000000  0.00000000  0.50000000

 position of ions in cartesian coordinates  (Angst):
   0.00000000  0.00000000  0.00000000
   1.99217171  1.99217171  1.99217171
   1.99217171  1.99217171  0.00000000
   0.00000000  1.99217171  1.99217171
   1.99217171  0.00000000  1.99217171



--------------------------------------------------------------------------------------------------------


 k-point  1 :   0.0000 0.0000 0.0000  plane waves:    2601
 k-point  2 :   0.0667 0.0000 0.0000  plane waves:    2653
 k-point  3 :   0.1333 0.0000 0.0000  plane waves:    2661
 k-point  4 :   0.2000 0.0000 0.0000  plane waves:    2669
 k-point  5 :   0.2667 0.0000 0.0000  plane waves:    2677
 k-point  6 :   0.3333 0.0000 0.0000  plane waves:    2677
 k-point  7 :   0.4000 0.0000 0.0000  plane waves:    2657
 k-point  8 :   0.4667 0.0000 0.0000  plane waves:    2678
 k-point  9 :   0.0667 0.0667 0.0000  plane waves:    2655
 k-point 10 :   0.1333 0.0667 0.0000  plane waves:    2655
 k-point 11 :   0.2000 0.0667 0.0000  plane waves:    2657
 k-point 12 :   0.2667 0.0667 0.0000  plane waves:    2678
 k-point 13 :   0.3333 0.0667 0.0000  plane waves:    2677
 k-point 14 :   0.4000 0.0667 0.0000  plane waves:    2670
 k-point 15 :   0.4667 0.0667 0.0000  plane waves:    2675
 k-point 16 :   0.1333 0.1333 0.0000  plane waves:    2658
 k-point 17 :   0.2000 0.1333 0.0000  plane waves:    2671
 k-point 18 :   0.2667 0.1333 0.0000  plane waves:    2679
 k-point 19 :   0.3333 0.1333 0.0000  plane waves:    2664
 k-point 20 :   0.4000 0.1333 0.0000  plane waves:    2663
 k-point 21 :   0.4667 0.1333 0.0000  plane waves:    2667
 k-point 22 :   0.2000 0.2000 0.0000  plane waves:    2674
 k-point 23 :   0.2667 0.2000 0.0000  plane waves:    2663
 k-point 24 :   0.3333 0.2000 0.0000  plane waves:    2660
 k-point 25 :   0.4000 0.2000 0.0000  plane waves:    2662
 k-point 26 :   0.4667 0.2000 0.0000  plane waves:    2668
 k-point 27 :   0.2667 0.2667 0.0000  plane waves:    2654
 k-point 28 :   0.3333 0.2667 0.0000  plane waves:    2655
 k-point 29 :   0.4000 0.2667 0.0000  plane waves:    2657
 k-point 30 :   0.4667 0.2667 0.0000  plane waves:    2661
 k-point 31 :   0.3333 0.3333 0.0000  plane waves:    2658
 k-point 32 :   0.4000 0.3333 0.0000  plane waves:    2662
 k-point 33 :   0.4667 0.3333 0.0000  plane waves:    2652
 k-point 34 :   0.4000 0.4000 0.0000  plane waves:    2656
 k-point 35 :   0.4667 0.4000 0.0000  plane waves:    2655
 k-point 36 :   0.4667 0.4667 0.0000  plane waves:    2664
 k-point 37 :   0.0667 0.0667 0.0667  plane waves:    2656
 k-point 38 :   0.1333 0.0667 0.0667  plane waves:    2655
 k-point 39 :   0.2000 0.0667 0.0667  plane waves:    2667
 k-point 40 :   0.2667 0.0667 0.0667  plane waves:    2670
 k-point 41 :   0.3333 0.0667 0.0667  plane waves:    2670
 k-point 42 :   0.4000 0.0667 0.0667  plane waves:    2661
 k-point 43 :   0.4667 0.0667 0.0667  plane waves:    2667
 k-point 44 :   0.1333 0.1333 0.0667  plane waves:    2659
 k-point 45 :   0.2000 0.1333 0.0667  plane waves:    2662
 k-point 46 :   0.2667 0.1333 0.0667  plane waves:    2670
 k-point 47 :   0.3333 0.1333 0.0667  plane waves:    2669
 k-point 48 :   0.4000 0.1333 0.0667  plane waves:    2669
 k-point 49 :   0.4667 0.1333 0.0667  plane waves:    2673
 k-point 50 :   0.2000 0.2000 0.0667  plane waves:    2673
 k-point 51 :   0.2667 0.2000 0.0667  plane waves:    2671
 k-point 52 :   0.3333 0.2000 0.0667  plane waves:    2668
 k-point 53 :   0.4000 0.2000 0.0667  plane waves:    2665
 k-point 54 :   0.4667 0.2000 0.0667  plane waves:    2668
 k-point 55 :   0.2667 0.2667 0.0667  plane waves:    2663
 k-point 56 :   0.3333 0.2667 0.0667  plane waves:    2668
 k-point 57 :   0.4000 0.2667 0.0667  plane waves:    2655
 k-point 58 :   0.4667 0.2667 0.0667  plane waves:    2654
 k-point 59 :   0.3333 0.3333 0.0667  plane waves:    2660
 k-point 60 :   0.4000 0.3333 0.0667  plane waves:    2653
 k-point 61 :   0.4667 0.3333 0.0667  plane waves:    2652
 k-point 62 :   0.4000 0.4000 0.0667  plane waves:    2657
 k-point 63 :   0.4667 0.4000 0.0667  plane waves:    2656
 k-point 64 :   0.4667 0.4667 0.0667  plane waves:    2664
 k-point 65 :   0.1333 0.1333 0.1333  plane waves:    2659
 k-point 66 :   0.2000 0.1333 0.1333  plane waves:    2663
 k-point 67 :   0.2667 0.1333 0.1333  plane waves:    2670
 k-point 68 :   0.3333 0.1333 0.1333  plane waves:    2665
 k-point 69 :   0.4000 0.1333 0.1333  plane waves:    2670
 k-point 70 :   0.4667 0.1333 0.1333  plane waves:    2671
 k-point 71 :   0.2000 0.2000 0.1333  plane waves:    2665
 k-point 72 :   0.2667 0.2000 0.1333  plane waves:    2661
 k-point 73 :   0.3333 0.2000 0.1333  plane waves:    2659
 k-point 74 :   0.4000 0.2000 0.1333  plane waves:    2668
 k-point 75 :   0.4667 0.2000 0.1333  plane waves:    2660
 k-point 76 :   0.2667 0.2667 0.1333  plane waves:    2664
 k-point 77 :   0.3333 0.2667 0.1333  plane waves:    2664
 k-point 78 :   0.4000 0.2667 0.1333  plane waves:    2658
 k-point 79 :   0.4667 0.2667 0.1333  plane waves:    2654
 k-point 80 :   0.3333 0.3333 0.1333  plane waves:    2664
 k-point 81 :   0.4000 0.3333 0.1333  plane waves:    2656
 k-point 82 :   0.4667 0.3333 0.1333  plane waves:    2651
 k-point 83 :   0.4000 0.4000 0.1333  plane waves:    2653
 k-point 84 :   0.4667 0.4000 0.1333  plane waves:    2649
 k-point 85 :   0.4667 0.4667 0.1333  plane waves:    2658
 k-point 86 :   0.2000 0.2000 0.2000  plane waves:    2659
 k-point 87 :   0.2667 0.2000 0.2000  plane waves:    2667
 k-point 88 :   0.3333 0.2000 0.2000  plane waves:    2668
 k-point 89 :   0.4000 0.2000 0.2000  plane waves:    2667
 k-point 90 :   0.4667 0.2000 0.2000  plane waves:    2659
 k-point 91 :   0.2667 0.2667 0.2000  plane waves:    2667
 k-point 92 :   0.3333 0.2667 0.2000  plane waves:    2661
 k-point 93 :   0.4000 0.2667 0.2000  plane waves:    2659
 k-point 94 :   0.4667 0.2667 0.2000  plane waves:    2655
 k-point 95 :   0.3333 0.3333 0.2000  plane waves:    2662
 k-point 96 :   0.4000 0.3333 0.2000  plane waves:    2652
 k-point 97 :   0.4667 0.3333 0.2000  plane waves:    2649
 k-point 98 :   0.4000 0.4000 0.2000  plane waves:    2647
 k-point 99 :   0.4667 0.4000 0.2000  plane waves:    2652
 k-point ** :   0.4667 0.4667 0.2000  plane waves:    2663
 k-point ** :   0.2667 0.2667 0.2667  plane waves:    2662
 k-point ** :   0.3333 0.2667 0.2667  plane waves:    2662
 k-point ** :   0.4000 0.2667 0.2667  plane waves:    2659
 k-point ** :   0.4667 0.2667 0.2667  plane waves:    2657
 k-point ** :   0.3333 0.3333 0.2667  plane waves:    2661
 k-point ** :   0.4000 0.3333 0.2667  plane waves:    2655
 k-point ** :   0.4667 0.3333 0.2667  plane waves:    2651
 k-point ** :   0.4000 0.4000 0.2667  plane waves:    2648
 k-point ** :   0.4667 0.4000 0.2667  plane waves:    2649
 k-point ** :   0.4667 0.4667 0.2667  plane waves:    2652
 k-point ** :   0.3333 0.3333 0.3333  plane waves:    2644
 k-point ** :   0.4000 0.3333 0.3333  plane waves:    2657
 k-point ** :   0.4667 0.3333 0.3333  plane waves:    2645
 k-point ** :   0.4000 0.4000 0.3333  plane waves:    2647
 k-point ** :   0.4667 0.4000 0.3333  plane waves:    2652
 k-point ** :   0.4667 0.4667 0.3333  plane waves:    2644
 k-point ** :   0.4000 0.4000 0.4000  plane waves:    2650
 k-point ** :   0.4667 0.4000 0.4000  plane waves:    2644
 k-point ** :   0.4667 0.4667 0.4000  plane waves:    2639
 k-point ** :   0.4667 0.4667 0.4667  plane waves:    2626

 maximum and minimum number of plane-waves per node :      2679     2601

 maximum number of plane-waves:      2679
 maximum index in each direction: 
   IXMAX=    8   IYMAX=    8   IZMAX=    8
   IXMIN=   -9   IYMIN=   -9   IZMIN=   -9


 serial   3D FFT for wavefunctions
 parallel 3D FFT for charge:
    minimum data exchange during FFTs selected (reduces bandwidth)


 total amount of memory used by VASP MPI-rank0   377015. kBytes
=======================================================================

   base      :      30000. kBytes
   nonl-proj :     139093. kBytes
   fftplans  :      55360. kBytes
   grid      :      26272. kBytes
   one-center:         77. kBytes
   wavefun   :     126213. kBytes

     INWAV:  cpu time    0.0000: real time    0.0000
 initial charge density was supplied:
 number of electron      40.0000000 magnetization 
 keeping initial charge density in first step


--------------------------------------------------------------------------------------------------------


 Maximum index for augmentation-charges       358317 (set IRDMAX)


--------------------------------------------------------------------------------------------------------


 First call to EWALD:  gamma=   0.445
 Maximum number of real-space cells 3x 3x 3
 Maximum number of reciprocal cells 3x 3x 3

    FEWALD:  cpu time    0.0004: real time    0.0004


--------------------------------------- Iteration      1(   1)  ---------------------------------------


    POTLOK:  cpu time    0.1027: real time    0.1027
    SETDIJ:  cpu time    0.2140: real time    0.2140
     EDDAV:  cpu time   14.0422: real time   14.0425
 BZINTS: Fermi energy: 22.553919; 40.000000 electrons
         Band energy: 117.498369;  BLOECHL correction: -0.306690
       DOS:  cpu time    1.1377: real time    1.1378
    --------------------------------------------
      LOOP:  cpu time   15.4966: real time   15.4970

 eigenvalue-minimisations  :  5760
 total energy-change (2. order) : 0.4770149E+03  (-0.2597258E+04)
 number of electron      40.0000000 magnetization 
 augmentation part       40.0000000 magnetization 

 Free energy of the ion-electron system (eV)
  ---------------------------------------------------
  alpha Z        PSCENC =       262.28811341
  Ewald energy   TEWEN  =     -2833.75338767
  -Hartree energ DENC   =      -842.07548473
  -exchange      EXHF   =         0.00000000
  -V(xc)+E(xc)   XCENC  =       174.80520012
  PAW double counting   =      4134.13536262    -4114.71937964
  entropy T*S    EENTRO =         0.00000000
  eigenvalues    EBANDS =       117.49836902
  atomic energy  EATOM  =      3578.83610127
  Solvation  Ediel_sol  =         0.00000000
  ---------------------------------------------------
  free energy    TOTEN  =       477.01489440 eV

  energy without entropy =      477.01489440  energy(sigma->0) =      477.01489440


--------------------------------------------------------------------------------------------------------




--------------------------------------- Iteration      1(   2)  ---------------------------------------


     EDDAV:  cpu time   15.5466: real time   15.5472
 BZINTS: Fermi energy:  7.351322; 40.000000 electrons
         Band energy:-344.496934;  BLOECHL correction: -0.220249
       DOS:  cpu time    0.0850: real time    0.0850
    --------------------------------------------
      LOOP:  cpu time   15.6316: real time   15.6322

 eigenvalue-minimisations  :  6488
 total energy-change (2. order) :-0.4619953E+03  (-0.4538427E+03)
 number of electron      40.0000000 magnetization 
 augmentation part       40.0000000 magnetization 

 Free energy of the ion-electron system (eV)
  ---------------------------------------------------
  alpha Z        PSCENC =       262.28811341
  Ewald energy   TEWEN  =     -2833.75338767
  -Hartree energ DENC   =      -842.07548473
  -exchange      EXHF   =         0.00000000
  -V(xc)+E(xc)   XCENC  =       174.80520012
  PAW double counting   =      4134.13536262    -4114.71937964
  entropy T*S    EENTRO =         0.00000000
  eigenvalues    EBANDS =      -344.49693387
  atomic energy  EATOM  =      3578.83610127
  Solvation  Ediel_sol  =         0.00000000
  ---------------------------------------------------
  free energy    TOTEN  =        15.01959150 eV

  energy without entropy =       15.01959150  energy(sigma->0) =       15.01959150


--------------------------------------------------------------------------------------------------------




--------------------------------------- Iteration      1(   3)  ---------------------------------------


     EDDAV:  cpu time   21.4783: real time   21.4788
 BZINTS: Fermi energy:  5.545061; 40.000000 electrons
         Band energy:-398.855638;  BLOECHL correction: -0.000968
       DOS:  cpu time    0.2397: real time    0.2397
    --------------------------------------------
      LOOP:  cpu time   21.7180: real time   21.7185

 eigenvalue-minimisations  :  9464
 total energy-change (2. order) :-0.5435870E+02  (-0.5269988E+02)
 number of electron      40.0000000 magnetization 
 augmentation part       40.0000000 magnetization 

 Free energy of the ion-electron system (eV)
  ---------------------------------------------------
  alpha Z        PSCENC =       262.28811341
  Ewald energy   TEWEN  =     -2833.75338767
  -Hartree energ DENC   =      -842.07548473
  -exchange      EXHF   =         0.00000000
  -V(xc)+E(xc)   XCENC  =       174.80520012
  PAW double counting   =      4134.13536262    -4114.71937964
  entropy T*S    EENTRO =         0.00000000
  eigenvalues    EBANDS =      -398.85563760
  atomic energy  EATOM  =      3578.83610127
  Solvation  Ediel_sol  =         0.00000000
  ---------------------------------------------------
  free energy    TOTEN  =       -39.33911222 eV

  energy without entropy =      -39.33911222  energy(sigma->0) =      -39.33911222


--------------------------------------------------------------------------------------------------------




--------------------------------------- Iteration      1(   4)  ---------------------------------------


     EDDAV:  cpu time   17.3002: real time   17.3006
 BZINTS: Fermi energy:  3.781250; 40.000000 electrons
         Band energy:-401.408037;  BLOECHL correction:  0.000000
       DOS:  cpu time    0.0298: real time    0.0298
    --------------------------------------------
      LOOP:  cpu time   17.3300: real time   17.3304

 eigenvalue-minimisations  :  7264
 total energy-change (2. order) :-0.2552399E+01  (-0.2550323E+01)
 number of electron      40.0000000 magnetization 
 augmentation part       40.0000000 magnetization 

 Free energy of the ion-electron system (eV)
  ---------------------------------------------------
  alpha Z        PSCENC =       262.28811341
  Ewald energy   TEWEN  =     -2833.75338767
  -Hartree energ DENC   =      -842.07548473
  -exchange      EXHF   =         0.00000000
  -V(xc)+E(xc)   XCENC  =       174.80520012
  PAW double counting   =      4134.13536262    -4114.71937964
  entropy T*S    EENTRO =         0.00000000
  eigenvalues    EBANDS =      -401.40803654
  atomic energy  EATOM  =      3578.83610127
  Solvation  Ediel_sol  =         0.00000000
  ---------------------------------------------------
  free energy    TOTEN  =       -41.89151116 eV

  energy without entropy =      -41.89151116  energy(sigma->0) =      -41.89151116


--------------------------------------------------------------------------------------------------------




--------------------------------------- Iteration      1(   5)  ---------------------------------------


     EDDAV:  cpu time   18.6957: real time   18.6960
 BZINTS: Fermi energy:  3.781250; 40.000000 electrons
         Band energy:-401.511755;  BLOECHL correction:  0.000000
       DOS:  cpu time    0.0297: real time    0.0297
    --------------------------------------------
      LOOP:  cpu time   18.7253: real time   18.7257

 eigenvalue-minimisations  :  8128
 total energy-change (2. order) :-0.1037182E+00  (-0.1037171E+00)
 number of electron      40.0000000 magnetization 
 augmentation part       40.0000000 magnetization 

 Free energy of the ion-electron system (eV)
  ---------------------------------------------------
  alpha Z        PSCENC =       262.28811341
  Ewald energy   TEWEN  =     -2833.75338767
  -Hartree energ DENC   =      -842.07548473
  -exchange      EXHF   =         0.00000000
  -V(xc)+E(xc)   XCENC  =       174.80520012
  PAW double counting   =      4134.13536262    -4114.71937964
  entropy T*S    EENTRO =         0.00000000
  eigenvalues    EBANDS =      -401.51175476
  atomic energy  EATOM  =      3578.83610127
  Solvation  Ediel_sol  =         0.00000000
  ---------------------------------------------------
  free energy    TOTEN  =       -41.99522938 eV

  energy without entropy =      -41.99522938  energy(sigma->0) =      -41.99522938


--------------------------------------------------------------------------------------------------------




--------------------------------------- Iteration      1(   6)  ---------------------------------------


     EDDAV:  cpu time   17.6635: real time   17.6639
 BZINTS: Fermi energy:  3.781250; 40.000000 electrons
         Band energy:-401.512972;  BLOECHL correction:  0.000000
       DOS:  cpu time    0.0301: real time    0.0301
    --------------------------------------------
      LOOP:  cpu time   17.6936: real time   17.6940

 eigenvalue-minimisations  :  7464
 total energy-change (2. order) :-0.1217387E-02  (-0.1217383E-02)
 number of electron      40.0000000 magnetization 
 augmentation part       40.0000000 magnetization 

 Free energy of the ion-electron system (eV)
  ---------------------------------------------------
  alpha Z        PSCENC =       262.28811341
  Ewald energy   TEWEN  =     -2833.75338767
  -Hartree energ DENC   =      -842.07548473
  -exchange      EXHF   =         0.00000000
  -V(xc)+E(xc)   XCENC  =       174.80520012
  PAW double counting   =      4134.13536262    -4114.71937964
  entropy T*S    EENTRO =         0.00000000
  eigenvalues    EBANDS =      -401.51297215
  atomic energy  EATOM  =      3578.83610127
  Solvation  Ediel_sol  =         0.00000000
  ---------------------------------------------------
  free energy    TOTEN  =       -41.99644677 eV

  energy without entropy =      -41.99644677  energy(sigma->0) =      -41.99644677


--------------------------------------------------------------------------------------------------------




--------------------------------------- Iteration      1(   7)  ---------------------------------------


     EDDAV:  cpu time   19.8807: real time   19.8838
 BZINTS: Fermi energy:  3.781250; 40.000000 electrons
         Band energy:-401.512988;  BLOECHL correction:  0.000000
       DOS:  cpu time    0.0298: real time    0.0298
    --------------------------------------------
      LOOP:  cpu time   19.9105: real time   19.9136

 eigenvalue-minimisations  :  8360
 total energy-change (2. order) :-0.1611745E-04  (-0.1611740E-04)
 number of electron      40.0000000 magnetization 
 augmentation part       40.0000000 magnetization 

 Free energy of the ion-electron system (eV)
  ---------------------------------------------------
  alpha Z        PSCENC =       262.28811341
  Ewald energy   TEWEN  =     -2833.75338767
  -Hartree energ DENC   =      -842.07548473
  -exchange      EXHF   =         0.00000000
  -V(xc)+E(xc)   XCENC  =       174.80520012
  PAW double counting   =      4134.13536262    -4114.71937964
  entropy T*S    EENTRO =         0.00000000
  eigenvalues    EBANDS =      -401.51298827
  atomic energy  EATOM  =      3578.83610127
  Solvation  Ediel_sol  =         0.00000000
  ---------------------------------------------------
  free energy    TOTEN  =       -41.99646289 eV

  energy without entropy =      -41.99646289  energy(sigma->0) =      -41.99646289


--------------------------------------------------------------------------------------------------------




--------------------------------------- Iteration      1(   8)  ---------------------------------------


     EDDAV:  cpu time   17.6083: real time   17.6083
 BZINTS: Fermi energy:  3.781250; 40.000000 electrons
         Band energy:-401.512988;  BLOECHL correction:  0.000000
       DOS:  cpu time    0.0303: real time    0.0303
    --------------------------------------------
      LOOP:  cpu time   17.6387: real time   17.6387

 eigenvalue-minimisations  :  7488
 total energy-change (2. order) :-0.2045626E-06  (-0.2045349E-06)
 number of electron      40.0000000 magnetization 
 augmentation part       40.0000000 magnetization 

 Free energy of the ion-electron system (eV)
  ---------------------------------------------------
  alpha Z        PSCENC =       262.28811341
  Ewald energy   TEWEN  =     -2833.75338767
  -Hartree energ DENC   =      -842.07548473
  -exchange      EXHF   =         0.00000000
  -V(xc)+E(xc)   XCENC  =       174.80520012
  PAW double counting   =      4134.13536262    -4114.71937964
  entropy T*S    EENTRO =         0.00000000
  eigenvalues    EBANDS =      -401.51298847
  atomic energy  EATOM  =      3578.83610127
  Solvation  Ediel_sol  =         0.00000000
  ---------------------------------------------------
  free energy    TOTEN  =       -41.99646309 eV

  energy without entropy =      -41.99646309  energy(sigma->0) =      -41.99646309


--------------------------------------------------------------------------------------------------------




--------------------------------------- Iteration      1(   9)  ---------------------------------------


     EDDAV:  cpu time   19.8601: real time   19.8601
 BZINTS: Fermi energy:  3.781250; 40.000000 electrons
         Band energy:-401.512988;  BLOECHL correction:  0.000000
       DOS:  cpu time    0.0283: real time    0.0283
    --------------------------------------------
      LOOP:  cpu time   19.8884: real time   19.8885

 eigenvalue-minimisations  :  7944
 total energy-change (2. order) :-0.2910838E-08  (-0.2903121E-08)
 number of electron      40.0000000 magnetization 
 augmentation part       40.0000000 magnetization 

 Free energy of the ion-electron system (eV)
  ---------------------------------------------------
  alpha Z        PSCENC =       262.28811341
  Ewald energy   TEWEN  =     -2833.75338767
  -Hartree energ DENC   =      -842.07548473
  -exchange      EXHF   =         0.00000000
  -V(xc)+E(xc)   XCENC  =       174.80520012
  PAW double counting   =      4134.13536262    -4114.71937964
  entropy T*S    EENTRO =         0.00000000
  eigenvalues    EBANDS =      -401.51298847
  atomic energy  EATOM  =      3578.83610127
  Solvation  Ediel_sol  =         0.00000000
  ---------------------------------------------------
  free energy    TOTEN  =       -41.99646310 eV

  energy without entropy =      -41.99646310  energy(sigma->0) =      -41.99646310


--------------------------------------------------------------------------------------------------------




 average (electrostatic) potential at core
  the test charge radii are     1.2192  1.0397  0.7215
  (the norm of the test charge is              1.0000)
       1 -32.5946       2 -76.6411       3 -69.5910       4 -69.5910       5 -69.5910



 E-fermi :   3.7812     XC(G=0): -11.5893     alpha+bet :-14.7409


 k-point     1 :       0.0000    0.0000    0.0000
  band No.  band energies     occupation 
      1     -52.5190      2.00000
      2     -28.8505      2.00000
      3     -28.8505      2.00000
      4     -28.8505      2.00000
      5     -20.9327      2.00000
      6     -13.0514      2.00000
      7     -12.3623      2.00000
      8     -12.3623      2.00000
      9      -6.1191      2.00000
     10      -6.1191      2.00000
     11      -6.1191      2.00000
     12       1.4778      2.00000
     13       1.4778      2.00000
     14       1.4778      2.00000
     15       2.6622      2.00000
     16       2.6622      2.00000
     17       2.6622      2.00000
     18       3.6619      2.00000
     19       3.6619      2.00000
     20       3.6619      2.00000
     21       5.5249      0.00000
     22       5.5249      0.00000
     23       5.5249      0.00000
     24       7.8140      0.00000

 k-point     2 :       0.0667    0.0000    0.0000
  band No.  band energies     occupation 
      1     -52.5189      2.00000
      2     -28.8530      2.00000
      3     -28.8504      2.00000
      4     -28.8504      2.00000
      5     -20.9271      2.00000
      6     -13.0530      2.00000
      7     -12.3606      2.00000
      8     -12.3605      2.00000
      9      -6.1116      2.00000
     10      -6.1116      2.00000
     11      -6.0987      2.00000
     12       1.3983      2.00000
     13       1.4643      2.00000
     14       1.4643      2.00000
     15       2.6022      2.00000
     16       2.6022      2.00000
     17       2.6157      2.00000
     18       3.5316      2.00000
     19       3.6232      2.00000
     20       3.6232      2.00000
     21       5.5320      0.00000
     22       5.6304      0.00000
     23       5.6304      0.00000
     24       7.8147      0.00000

 k-point     3 :       0.1333    0.0000    0.0000
  band No.  band energies     occupation 
      1     -52.5188      2.00000
      2     -28.8601      2.00000
      3     -28.8501      2.00000
      4     -28.8501      2.00000
      5     -20.9113      2.00000
      6     -13.0647      2.00000
      7     -12.3557      2.00000
      8     -12.3471      2.00000
      9      -6.0901      2.00000
     10      -6.0901      2.00000
     11      -6.0411      2.00000
     12       1.1758      2.00000
     13       1.4221      2.00000
     14       1.4221      2.00000
     15       2.4520      2.00000
     16       2.4520      2.00000
     17       2.4903      2.00000
     18       3.2084      2.00000
     19       3.5281      2.00000
     20       3.5281      2.00000
     21       5.5523      0.00000
     22       5.9027      0.00000
     23       5.9027      0.00000
     24       7.8163      0.00000

 k-point     4 :       0.2000    0.0000    0.0000
  band No.  band energies     occupation 
      1     -52.5186      2.00000
      2     -28.8705      2.00000
      3     -28.8497      2.00000
      4     -28.8497      2.00000
      5     -20.8878      2.00000
[...]
     22       7.7026      0.00000
     23       7.9123      0.00000
     24      10.2207      0.00000

 k-point   111 :       0.3333    0.3333    0.3333
  band No.  band energies     occupation 
      1     -52.5164      2.00000
      2     -28.8894      2.00000
      3     -28.8887      2.00000
      4     -28.8887      2.00000
      5     -20.7016      2.00000
      6     -12.5610      2.00000
      7     -12.2018      2.00000
      8     -12.2018      2.00000
      9      -6.5468      2.00000
     10      -6.5468      2.00000
     11      -6.0716      2.00000
     12      -0.2303      2.00000
     13       0.2773      2.00000
     14       0.2773      2.00000
     15       0.7487      2.00000
     16       1.3183      2.00000
     17       1.3183      2.00000
     18       3.2323      2.00000
     19       3.2323      2.00000
     20       3.4850      2.00000
     21       7.5436      0.00000
     22       7.5436      0.00000
     23       7.5534      0.00000
     24      10.6614      0.00000

 k-point   112 :       0.4000    0.3333    0.3333
  band No.  band energies     occupation 
      1     -52.5163      2.00000
      2     -28.8975      2.00000
      3     -28.8887      2.00000
      4     -28.8883      2.00000
      5     -20.6890      2.00000
      6     -12.4897      2.00000
      7     -12.1871      2.00000
      8     -12.1774      2.00000
      9      -6.6289      2.00000
     10      -6.5718      2.00000
     11      -6.2169      2.00000
     12      -0.3528      2.00000
     13       0.1640      2.00000
     14       0.2770      2.00000
     15       0.7485      2.00000
     16       1.3266      2.00000
     17       1.3425      2.00000
     18       3.2362      2.00000
     19       3.3554      2.00000
     20       3.5476      2.00000
     21       7.5885      0.00000
     22       7.6879      0.00000
     23       7.6980      0.00000
     24      10.6151      0.00000

 k-point   113 :       0.4667    0.3333    0.3333
  band No.  band energies     occupation 
      1     -52.5162      2.00000
      2     -28.9021      2.00000
      3     -28.8884      2.00000
      4     -28.8881      2.00000
      5     -20.6820      2.00000
      6     -12.4544      2.00000
      7     -12.1747      2.00000
      8     -12.1638      2.00000
      9      -6.6735      2.00000
     10      -6.5592      2.00000
     11      -6.3206      2.00000
     12      -0.4643      2.00000
     13       0.1501      2.00000
     14       0.2772      2.00000
     15       0.7322      2.00000
     16       1.3315      2.00000
     17       1.3761      2.00000
     18       3.2365      2.00000
     19       3.4163      2.00000
     20       3.5804      2.00000
     21       7.6111      0.00000
     22       7.7763      0.00000
     23       7.7828      0.00000
     24      10.5814      0.00000

 k-point   114 :       0.4000    0.4000    0.3333
  band No.  band energies     occupation 
      1     -52.5161      2.00000
      2     -28.8971      2.00000
      3     -28.8969      2.00000
      4     -28.8880      2.00000
      5     -20.6768      2.00000
      6     -12.3992      2.00000
      7     -12.1731      2.00000
      8     -12.1589      2.00000
      9      -6.6841      2.00000
     10      -6.6515      2.00000
     11      -6.3720      2.00000
     12      -0.4444      2.00000
     13       0.0302      2.00000
     14       0.2389      2.00000
     15       0.8432      2.00000
     16       1.3283      2.00000
     17       1.3482      2.00000
     18       3.3527      2.00000
     19       3.4204      2.00000
     20       3.6304      2.00000
     21       7.7332      0.00000
     22       7.7355      0.00000
     23       7.8198      0.00000
     24      10.6853      0.00000

 k-point   115 :       0.4667    0.4000    0.3333
  band No.  band energies     occupation 
      1     -52.5160      2.00000
      2     -28.9016      2.00000
      3     -28.8967      2.00000
      4     -28.8878      2.00000
      5     -20.6701      2.00000
      6     -12.3491      2.00000
      7     -12.1634      2.00000
      8     -12.1503      2.00000
      9      -6.7241      2.00000
     10      -6.6577      2.00000
     11      -6.4813      2.00000
     12      -0.5364      2.00000
     13      -0.0237      2.00000
     14       0.2420      2.00000
     15       0.8834      2.00000
     16       1.3377      2.00000
     17       1.3558      2.00000
     18       3.3898      2.00000
     19       3.4728      2.00000
     20       3.6833      2.00000
     21       7.7571      0.00000
     22       7.8200      0.00000
     23       7.8961      0.00000
     24      10.6240      0.00000

 k-point   116 :       0.4667    0.4667    0.3333
  band No.  band energies     occupation 
      1     -52.5159      2.00000
      2     -28.9014      2.00000
      3     -28.9014      2.00000
      4     -28.8876      2.00000
      5     -20.6636      2.00000
      6     -12.2822      2.00000
      7     -12.1571      2.00000
      8     -12.1513      2.00000
      9      -6.7239      2.00000
     10      -6.7073      2.00000
     11      -6.5975      2.00000
     12      -0.6100      2.00000
     13      -0.1042      2.00000
     14       0.2455      2.00000
     15       0.9657      2.00000
     16       1.3374      2.00000
     17       1.3445      2.00000
     18       3.4782      2.00000
     19       3.4920      2.00000
     20       3.7518      2.00000
     21       7.8419      0.00000
     22       7.8426      0.00000
     23       7.9669      0.00000
     24      10.5214      0.00000

 k-point   117 :       0.4000    0.4000    0.4000
  band No.  band energies     occupation 
      1     -52.5159      2.00000
      2     -28.8967      2.00000
      3     -28.8965      2.00000
      4     -28.8965      2.00000
      5     -20.6650      2.00000
      6     -12.3038      2.00000
      7     -12.1446      2.00000
      8     -12.1446      2.00000
      9      -6.7516      2.00000
     10      -6.7516      2.00000
     11      -6.5344      2.00000
     12      -0.5262      2.00000
     13       0.0320      2.00000
     14       0.0320      2.00000
     15       1.0137      2.00000
     16       1.3500      2.00000
     17       1.3500      2.00000
     18       3.5197      2.00000
     19       3.5197      2.00000
     20       3.6735      2.00000
     21       7.8623      0.00000
     22       7.8623      0.00000
     23       7.8627      0.00000
     24      10.8761      0.00000

 k-point   118 :       0.4667    0.4000    0.4000
  band No.  band energies     occupation 
      1     -52.5158      2.00000
      2     -28.9012      2.00000
      3     -28.8964      2.00000
      4     -28.8962      2.00000
      5     -20.6585      2.00000
      6     -12.2485      2.00000
      7     -12.1389      2.00000
      8     -12.1287      2.00000
      9      -6.8058      2.00000
     10      -6.7632      2.00000
     11      -6.6450      2.00000
     12      -0.6070      2.00000
     13      -0.0426      2.00000
     14       0.0331      2.00000
     15       1.0940      2.00000
     16       1.3595      2.00000
     17       1.3636      2.00000
     18       3.5576      2.00000
     19       3.6122      2.00000
     20       3.7166      2.00000
     21       7.8860      0.00000
     22       7.9383      0.00000
     23       7.9392      0.00000
     24      10.7217      0.00000

 k-point   119 :       0.4667    0.4667    0.4000
  band No.  band energies     occupation 
      1     -52.5157      2.00000
      2     -28.9009      2.00000
      3     -28.9009      2.00000
      4     -28.8961      2.00000
      5     -20.6522      2.00000
      6     -12.1855      2.00000
      7     -12.1263      2.00000
      8     -12.1226      2.00000
      9      -6.8297      2.00000
     10      -6.8168      2.00000
     11      -6.7551      2.00000
     12      -0.6758      2.00000
     13      -0.1015      2.00000
     14       0.0018      2.00000
     15       1.2055      2.00000
     16       1.3665      2.00000
     17       1.3687      2.00000
     18       3.6541      2.00000
     19       3.6622      2.00000
     20       3.7666      2.00000
     21       7.9621      0.00000
     22       7.9624      0.00000
     23       8.0101      0.00000
     24      10.5703      0.00000

 k-point   120 :       0.4667    0.4667    0.4667
  band No.  band energies     occupation 
      1     -52.5156      2.00000
      2     -28.9007      2.00000
      3     -28.9007      2.00000
      4     -28.9007      2.00000
      5     -20.6459      2.00000
      6     -12.1290      2.00000
      7     -12.1091      2.00000
      8     -12.1091      2.00000
      9      -6.8760      2.00000
     10      -6.8760      2.00000
     11      -6.8489      2.00000
     12      -0.7380      2.00000
     13      -0.1000      2.00000
     14      -0.1000      2.00000
     15       1.3331      2.00000
     16       1.3786      2.00000
     17       1.3786      2.00000
     18       3.7579      2.00000
     19       3.7579      2.00000
     20       3.7801      2.00000
     21       8.0334      0.00000
     22       8.0341      0.00000
     23       8.0341      0.00000
     24      10.5496      0.00000


--------------------------------------------------------------------------------------------------------


 soft charge-density along one line, spin component           1
         0         1         2         3         4         5         6         7         8         9
 total charge-density along one line

 pseudopotential strength for first ion, spin component:           1
  0.447  -4.518   0.000   0.000   0.000   0.000   0.000   0.000
 -4.518   0.373  -0.000  -0.000  -0.000   0.000   0.000   0.000
  0.000  -0.000  -8.016  -0.000   0.000   4.433  -0.000   0.000
  0.000  -0.000  -0.000  -8.016  -0.000  -0.000   4.433  -0.000
  0.000  -0.000   0.000  -0.000  -8.016   0.000  -0.000   4.433
  0.000   0.000   4.433  -0.000   0.000   6.851   0.000  -0.000
  0.000   0.000  -0.000   4.433  -0.000   0.000   6.851   0.000
  0.000   0.000   0.000  -0.000   4.433  -0.000   0.000   6.851
  0.000  -0.000  -0.000   0.000   0.000  -0.000   0.000   0.000
 -0.000   0.000   0.000   0.000   0.000   0.000   0.000   0.000
 -0.000   0.000  -0.000   0.000  -0.000  -0.000   0.000  -0.000
 -0.000   0.000   0.000   0.000   0.000   0.000   0.000   0.000
 -0.000   0.000  -0.000   0.000   0.000  -0.000   0.000   0.000
  0.000  -0.000  -0.000   0.000   0.000  -0.000   0.000   0.000
 -0.000   0.000   0.000   0.000   0.000   0.000   0.000   0.000
 -0.000   0.000  -0.000   0.000  -0.000  -0.000   0.000  -0.000
 -0.000   0.000   0.000   0.000   0.000   0.000   0.000   0.000
 -0.000   0.000  -0.000   0.000   0.000  -0.000   0.000   0.000
 total augmentation occupancy for first ion, spin component:           1
  2.000   0.000   0.000   0.000   0.000   0.000   0.000   0.000   0.000   0.000   0.000   0.000   0.000   0.000   0.000   0.000
  0.000   1.990   0.000   0.000   0.000   0.000   0.000   0.000   0.000   0.000   0.000   0.000   0.000   0.000   0.000   0.000
  0.000   0.000   2.000   0.000   0.000   0.000   0.000   0.000   0.000   0.000   0.000   0.000   0.000   0.000   0.000   0.000
  0.000   0.000   0.000   2.000   0.000   0.000   0.000   0.000   0.000   0.000   0.000   0.000   0.000   0.000   0.000   0.000
  0.000   0.000   0.000   0.000   2.000   0.000   0.000   0.000   0.000   0.000   0.000   0.000   0.000   0.000   0.000   0.000
  0.000   0.000   0.000   0.000   0.000   0.000   0.000   0.000   0.000   0.000   0.000   0.000   0.000   0.000   0.000   0.000
  0.000   0.000   0.000   0.000   0.000   0.000   0.000   0.000   0.000   0.000   0.000   0.000   0.000   0.000   0.000   0.000
  0.000   0.000   0.000   0.000   0.000   0.000   0.000   0.000   0.000   0.000   0.000   0.000   0.000   0.000   0.000   0.000
  0.000   0.000   0.000   0.000   0.000   0.000   0.000   0.000   0.002   0.000   0.000   0.000   0.000   0.000   0.000   0.000
  0.000   0.000   0.000   0.000   0.000   0.000   0.000   0.000   0.000   0.002   0.000   0.000   0.000   0.000   0.000   0.000
  0.000   0.000   0.000   0.000   0.000   0.000   0.000   0.000   0.000   0.000   0.002   0.000   0.000   0.000   0.000   0.000
  0.000   0.000   0.000   0.000   0.000   0.000   0.000   0.000   0.000   0.000   0.000   0.002   0.000   0.000   0.000   0.000
  0.000   0.000   0.000   0.000   0.000   0.000   0.000   0.000   0.000   0.000   0.000   0.000   0.002   0.000   0.000   0.000
  0.000   0.000   0.000   0.000   0.000   0.000   0.000   0.000   0.000   0.000   0.000   0.000   0.000   0.000   0.000   0.000
  0.000   0.000   0.000   0.000   0.000   0.000   0.000   0.000   0.000   0.000   0.000   0.000   0.000   0.000   0.000   0.000
  0.000   0.000   0.000   0.000   0.000   0.000   0.000   0.000   0.000   0.000   0.000   0.000   0.000   0.000   0.000   0.000
  0.000   0.000   0.000   0.000   0.000   0.000   0.000   0.000   0.000   0.000   0.000   0.000   0.000   0.000   0.000   0.000
  0.000   0.000   0.000   0.000   0.000   0.000   0.000   0.000   0.000   0.000   0.000   0.000   0.000   0.000   0.000   0.000


------------------------ aborting loop because EDIFF is reached ----------------------------------------





 total charge     

# of ion       s       p       d       tot
------------------------------------------
    1        2.004   5.636   0.346   7.987
    2        2.216   6.283   1.721  10.221
    3        1.534   3.697   0.000   5.231
    4        1.573   3.251   0.000   4.824
    5        1.559   3.419   0.000   4.978
--------------------------------------------------
tot          8.886  22.286   2.068  33.240

    CHARGE:  cpu time    1.8018: real time    1.8019
    FORLOC:  cpu time    0.0139: real time    0.0139
    FORNL :  cpu time    4.2903: real time    4.2904
    STRESS:  cpu time   16.1398: real time   16.1399
    FORCOR:  cpu time    0.1576: real time    0.1576
    FORHAR:  cpu time    0.0735: real time    0.0735
    OFIELD:  cpu time    0.0009: real time    0.0009

  FORCE on cell =-STRESS in cart. coord.  units (eV):
  Direction    XX          YY          ZZ          XY          YZ          ZX
  --------------------------------------------------------------------------------------
  Alpha Z   262.28811   262.28811   262.28811
  Ewald    -944.58527  -944.58527  -944.58527     0.00000     0.00000    -0.00000
  Hartree   280.68969   280.68969   280.68969    -0.00000    -0.00000    -0.00000
  E(xc)    -184.46596  -184.46596  -184.46596     0.00000    -0.00000    -0.00000
  Local     -56.71003   -56.71003   -56.71003     0.00000    -0.00000     0.00000
  n-local  -149.77596  -140.57629  -128.66027     0.26984     0.77304     0.32769
  augment    70.12274    70.12274    70.12274    -0.00000     0.00000     0.00000
  Kinetic   708.39209   716.14634   712.24188    -3.78053    -5.03331    -2.81537
  Fock        0.00000     0.00000     0.00000     0.00000     0.00000     0.00000
  -------------------------------------------------------------------------------------
  Total      -0.07146    -0.07146    -0.07146    -0.00000     0.00000    -0.00000
  in kB      -1.80998    -1.80998    -1.80998    -0.00000     0.00000    -0.00000
  external pressure =       -1.81 kB  Pullay stress =        0.00 kB


 VOLUME and BASIS-vectors are now :
 -----------------------------------------------------------------------------
  energy-cutoff  :      700.00
  volume of cell :       63.25
      direct lattice vectors                 reciprocal lattice vectors
     3.984343411  0.000000000  0.000000000     0.250982382  0.000000000  0.000000000
     0.000000000  3.984343411  0.000000000     0.000000000  0.250982382  0.000000000
     0.000000000  0.000000000  3.984343411     0.000000000  0.000000000  0.250982382

  length of vectors
     3.984343411  3.984343411  3.984343411     0.250982382  0.250982382  0.250982382


 FORCES acting on ions
    electron-ion (+dipol)            ewald-force                    non-local-force                 convergence-correction
 -----------------------------------------------------------------------------------------------
   -.945E-14 -.109E-13 -.401E-14   -.563E-14 -.453E-15 -.540E-14   0.000E+00 0.000E+00 0.000E+00   0.151E-13 0.160E-14 0.158E-13
   0.499E-12 0.206E-11 0.646E-11   0.326E-14 0.111E-13 0.560E-14   0.000E+00 0.000E+00 0.000E+00   -.135E-12 -.131E-12 -.130E-12
   0.179E-12 0.199E-11 0.110E-11   0.509E-15 0.737E-15 -.700E-15   0.000E+00 0.000E+00 0.000E+00   -.236E-13 -.168E-14 0.266E-13
   -.456E-13 0.182E-12 0.174E-12   0.180E-14 -.136E-14 0.957E-15   0.000E+00 0.000E+00 0.000E+00   0.405E-13 -.235E-13 -.521E-13
   0.177E-12 -.471E-13 0.416E-11   0.260E-15 -.927E-14 0.935E-15   0.000E+00 0.000E+00 0.000E+00   -.261E-14 0.231E-13 -.468E-13
 -----------------------------------------------------------------------------------------------
   0.800E-12 0.417E-11 0.119E-10   0.199E-15 0.767E-15 0.140E-14   0.000E+00 0.000E+00 0.000E+00   -.106E-12 -.131E-12 -.187E-12


 POSITION                                       TOTAL-FORCE (eV/Angst)
 -----------------------------------------------------------------------------------
      0.00000      0.00000      0.00000         0.000000      0.000000      0.000000
      1.99217      1.99217      1.99217         0.000000      0.000000      0.000000
      1.99217      1.99217      0.00000         0.000000      0.000000      0.000000
      0.00000      1.99217      1.99217         0.000000      0.000000      0.000000
      1.99217      0.00000      1.99217         0.000000      0.000000      0.000000
 -----------------------------------------------------------------------------------
    total drift:                                0.000000      0.000000      0.000000


--------------------------------------------------------------------------------------------------------



  FREE ENERGIE OF THE ION-ELECTRON SYSTEM (eV)
  ---------------------------------------------------
  free  energy   TOTEN  =       -41.99646310 eV

  energy  without entropy=      -41.99646310  energy(sigma->0) =      -41.99646310



--------------------------------------------------------------------------------------------------------


    POTLOK:  cpu time    0.2834: real time    0.2868


--------------------------------------------------------------------------------------------------------


     LOOP+:  cpu time  187.3019: real time  187.3169
    4ORBIT:  cpu time    0.0000: real time    0.0000



 total charge     

# of ion       s       p       d       tot
------------------------------------------
    1        2.004   5.636   0.346   7.987
    2        2.216   6.283   1.721  10.221
    3        1.534   3.697   0.000   5.231
    4        1.573   3.251   0.000   4.824
    5        1.559   3.419   0.000   4.978
--------------------------------------------------
tot          8.886  22.286   2.068  33.240

 BZINTS: Fermi energy:  3.781250; 40.000000 electrons
         Band energy:-401.512988;  BLOECHL correction:  0.000000

 total amount of memory used by VASP MPI-rank0   377015. kBytes
=======================================================================

   base      :      30000. kBytes
   nonl-proj :     139093. kBytes
   fftplans  :      55360. kBytes
   grid      :      26272. kBytes
   one-center:         77. kBytes
   wavefun   :     126213. kBytes

  
  
 General timing and accounting informations for this job:
 ========================================================
  
                  Total CPU time used (sec):      192.720
                            User time (sec):      189.619
                          System time (sec):        3.101
                         Elapsed time (sec):      192.972
  
                   Maximum memory used (kb):      488472.
                   Average memory used (kb):           0.
  
                          Minor page faults:       425143
                          Major page faults:            5
                 Voluntary context switches:          819
